MODEL 1
REMARK VINA RESULT:    -9.477      0.000      0.000
REMARK INTER + INTRA:         -26.721
REMARK INTER:                 -16.636
REMARK INTRA:                 -10.085
REMARK CONF_INDEPENDENT:        7.159
REMARK UNBOUND:               -10.085
REMARK SMILES O[C@@H]1[C@@H](O)[C@H](O[C@@H]2CO[C@@H](O[C@@H]3CO[C@@H](O[C@@H]4CO[C@@H](O[C@@H]5CO[C@@H](O[C@@H]6CO[C@@H](O)[C@H](O)[C@H]6O)[C@H](O)[C@H]5O)[C@H](O)[C@H]4O)[C@H](O)[C@H]3O)[C@H](O)[C@H]2O)OC[C@H]1O
REMARK SMILES IDX 16 1 17 2 20 3 40 4 19 5 42 6 18 7 21 8 22 9 25 10 36 11
REMARK SMILES IDX 24 12 38 13 23 14 26 15 27 16 30 17 32 18 29 19 34 20 28 21
REMARK SMILES IDX 31 22 33 24 35 26 37 28 39 30 41 32 43 34 15 36 44 37 14 38
REMARK SMILES IDX 46 39 13 40 12 41 45 42 47 44 11 46 10 47 48 48 9 49 50 50
REMARK SMILES IDX 8 51 7 52 49 53 51 55 6 57 5 58 3 59 52 60 2 61 53 62 54 63
REMARK SMILES IDX 4 64 1 66 55 68
REMARK H PARENT 31 23 33 25 35 27 37 29 39 31 41 33 43 35 45 43 47 45 49 54
REMARK H PARENT 51 56 4 65 1 67 55 69
ROOT
ATOM      1  O   UNL     1       8.051   2.556   4.449  1.00  0.00    -0.341 OA
ENDROOT
BRANCH   1   2
ATOM      2  C   UNL     1       9.396   2.159   4.723  1.00  0.00     0.179 C 
ATOM      3  C   UNL     1      12.085   2.633   4.010  1.00  0.00     0.282 C 
ATOM      4  C   UNL     1      11.431   1.303   3.653  1.00  0.00     0.202 C 
ATOM      5  O   UNL     1      11.538   3.142   5.189  1.00  0.00    -0.347 OA
ATOM      6  C   UNL     1       9.975   1.428   3.582  1.00  0.00     0.179 C 
ATOM      7  C   UNL     1      10.158   3.435   5.021  1.00  0.00     0.198 C 
BRANCH   3   8
ATOM      8  O   UNL     1      13.434   2.425   4.238  1.00  0.00    -0.341 OA
BRANCH   8   9
ATOM      9  C   UNL     1      13.687   1.163   4.840  1.00  0.00     0.179 C 
ATOM     10  C   UNL     1      15.407  -0.346   6.595  1.00  0.00     0.282 C 
ATOM     11  C   UNL     1      15.479  -0.588   5.143  1.00  0.00     0.202 C 
ATOM     12  O   UNL     1      14.150   0.101   7.001  1.00  0.00    -0.347 OA
ATOM     13  C   UNL     1      15.003   0.675   4.312  1.00  0.00     0.179 C 
ATOM     14  C   UNL     1      13.846   1.324   6.287  1.00  0.00     0.198 C 
BRANCH  10  15
ATOM     15  O   UNL     1      15.622  -1.590   7.192  1.00  0.00    -0.341 OA
BRANCH  15  16
ATOM     16  C   UNL     1      16.167  -1.571   8.351  1.00  0.00     0.179 C 
ATOM     17  C   UNL     1      16.795  -3.153  10.744  1.00  0.00     0.278 C 
ATOM     18  C   UNL     1      15.775  -2.061  10.797  1.00  0.00     0.201 C 
ATOM     19  O   UNL     1      17.763  -2.880   9.749  1.00  0.00    -0.347 OA
ATOM     20  C   UNL     1      15.072  -1.723   9.525  1.00  0.00     0.179 C 
ATOM     21  C   UNL     1      17.183  -2.734   8.425  1.00  0.00     0.198 C 
BRANCH  17  22
ATOM     22  O   UNL     1      17.480  -3.357  11.933  1.00  0.00    -0.366 OA
ATOM     23  H   UNL     1      18.278  -3.918  11.763  1.00  0.00     0.213 HD
ENDBRANCH  17  22
BRANCH  18  24
ATOM     24  O   UNL     1      14.652  -2.399  11.739  1.00  0.00    -0.385 OA
ATOM     25  H   UNL     1      13.835  -1.908  11.468  1.00  0.00     0.211 HD
ENDBRANCH  18  24
BRANCH  20  26
ATOM     26  O   UNL     1      14.269  -0.602   9.576  1.00  0.00    -0.387 OA
ATOM     27  H   UNL     1      14.193  -0.209   8.670  1.00  0.00     0.211 HD
ENDBRANCH  20  26
ENDBRANCH  15  16
ENDBRANCH  10  15
BRANCH  11  28
ATOM     28  O   UNL     1      16.793  -0.977   4.726  1.00  0.00    -0.385 OA
ATOM     29  H   UNL     1      16.972  -0.619   3.821  1.00  0.00     0.211 HD
ENDBRANCH  11  28
BRANCH  13  30
ATOM     30  O   UNL     1      15.015   0.461   2.908  1.00  0.00    -0.387 OA
ATOM     31  H   UNL     1      14.105   0.604   2.545  1.00  0.00     0.211 HD
ENDBRANCH  13  30
ENDBRANCH   8   9
ENDBRANCH   3   8
BRANCH   4  32
ATOM     32  O   UNL     1      11.929   0.871   2.398  1.00  0.00    -0.385 OA
ATOM     33  H   UNL     1      12.914   0.969   2.383  1.00  0.00     0.211 HD
ENDBRANCH   4  32
BRANCH   6  34
ATOM     34  O   UNL     1       9.403   0.110   3.491  1.00  0.00    -0.387 OA
ATOM     35  H   UNL     1       9.983  -0.463   2.928  1.00  0.00     0.211 HD
ENDBRANCH   6  34
ENDBRANCH   1   2
BRANCH   1  36
ATOM     36  C   UNL     1       6.931   2.581   5.369  1.00  0.00     0.282 C 
ATOM     37  C   UNL     1       7.241   1.993   6.715  1.00  0.00     0.202 C 
ATOM     38  O   UNL     1       6.814   3.997   5.512  1.00  0.00    -0.347 OA
ATOM     39  C   UNL     1       6.307   2.488   7.851  1.00  0.00     0.179 C 
ATOM     40  C   UNL     1       5.689   4.299   6.217  1.00  0.00     0.198 C 
ATOM     41  C   UNL     1       5.782   3.868   7.667  1.00  0.00     0.179 C 
BRANCH  37  42
ATOM     42  O   UNL     1       7.228   0.544   6.677  1.00  0.00    -0.385 OA
ATOM     43  H   UNL     1       6.769   0.196   7.483  1.00  0.00     0.211 HD
ENDBRANCH  37  42
BRANCH  39  44
ATOM     44  O   UNL     1       7.060   2.312   9.031  1.00  0.00    -0.387 OA
ATOM     45  H   UNL     1       7.189   1.345   9.199  1.00  0.00     0.211 HD
ENDBRANCH  39  44
BRANCH  41  46
ATOM     46  O   UNL     1       4.461   3.916   8.194  1.00  0.00    -0.341 OA
BRANCH  46  47
ATOM     47  C   UNL     1       3.994   5.135   8.709  1.00  0.00     0.282 C 
ATOM     48  C   UNL     1       4.050   5.119  10.217  1.00  0.00     0.202 C 
ATOM     49  O   UNL     1       4.915   6.118   8.192  1.00  0.00    -0.347 OA
ATOM     50  C   UNL     1       3.781   6.471  10.789  1.00  0.00     0.179 C 
ATOM     51  C   UNL     1       4.520   7.425   8.615  1.00  0.00     0.198 C 
ATOM     52  C   UNL     1       4.604   7.520  10.150  1.00  0.00     0.179 C 
BRANCH  48  53
ATOM     53  O   UNL     1       3.047   4.216  10.719  1.00  0.00    -0.385 OA
ATOM     54  H   UNL     1       3.339   3.851  11.592  1.00  0.00     0.211 HD
ENDBRANCH  48  53
BRANCH  50  55
ATOM     55  O   UNL     1       4.004   6.446  12.194  1.00  0.00    -0.387 OA
ATOM     56  H   UNL     1       4.891   6.837  12.394  1.00  0.00     0.211 HD
ENDBRANCH  50  55
BRANCH  52  57
ATOM     57  O   UNL     1       4.143   8.777  10.565  1.00  0.00    -0.341 OA
BRANCH  57  58
ATOM     58  C   UNL     1       5.037   9.797  10.847  1.00  0.00     0.282 C 
ATOM     59  C   UNL     1       6.317   9.207  11.452  1.00  0.00     0.202 C 
ATOM     60  O   UNL     1       5.397  10.392   9.600  1.00  0.00    -0.347 OA
ATOM     61  C   UNL     1       7.406  10.266  11.576  1.00  0.00     0.179 C 
ATOM     62  C   UNL     1       6.331  11.486   9.826  1.00  0.00     0.198 C 
ATOM     63  C   UNL     1       7.613  11.011  10.351  1.00  0.00     0.171 C 
BRANCH  59  64
ATOM     64  O   UNL     1       6.071   8.696  12.725  1.00  0.00    -0.385 OA
ATOM     65  H   UNL     1       5.350   8.019  12.676  1.00  0.00     0.211 HD
ENDBRANCH  59  64
BRANCH  61  66
ATOM     66  O   UNL     1       8.597   9.601  12.041  1.00  0.00    -0.387 OA
ATOM     67  H   UNL     1       8.345   8.804  12.571  1.00  0.00     0.211 HD
ENDBRANCH  61  66
BRANCH  63  68
ATOM     68  O   UNL     1       8.453  12.162  10.551  1.00  0.00    -0.388 OA
ATOM     69  H   UNL     1       9.382  11.867  10.718  1.00  0.00     0.211 HD
ENDBRANCH  63  68
ENDBRANCH  57  58
ENDBRANCH  52  57
ENDBRANCH  46  47
ENDBRANCH  41  46
ENDBRANCH   1  36
TORSDOF 24
ENDMDL
MODEL 2
REMARK VINA RESULT:    -9.013      4.664      7.064
REMARK INTER + INTRA:         -26.662
REMARK INTER:                 -16.172
REMARK INTRA:                 -10.490
REMARK CONF_INDEPENDENT:        7.159
REMARK UNBOUND:               -10.490
REMARK SMILES O[C@@H]1[C@@H](O)[C@H](O[C@@H]2CO[C@@H](O[C@@H]3CO[C@@H](O[C@@H]4CO[C@@H](O[C@@H]5CO[C@@H](O[C@@H]6CO[C@@H](O)[C@H](O)[C@H]6O)[C@H](O)[C@H]5O)[C@H](O)[C@H]4O)[C@H](O)[C@H]3O)[C@H](O)[C@H]2O)OC[C@H]1O
REMARK SMILES IDX 16 1 17 2 20 3 40 4 19 5 42 6 18 7 21 8 22 9 25 10 36 11
REMARK SMILES IDX 24 12 38 13 23 14 26 15 27 16 30 17 32 18 29 19 34 20 28 21
REMARK SMILES IDX 31 22 33 24 35 26 37 28 39 30 41 32 43 34 15 36 44 37 14 38
REMARK SMILES IDX 46 39 13 40 12 41 45 42 47 44 11 46 10 47 48 48 9 49 50 50
REMARK SMILES IDX 8 51 7 52 49 53 51 55 6 57 5 58 3 59 52 60 2 61 53 62 54 63
REMARK SMILES IDX 4 64 1 66 55 68
REMARK H PARENT 31 23 33 25 35 27 37 29 39 31 41 33 43 35 45 43 47 45 49 54
REMARK H PARENT 51 56 4 65 1 67 55 69
ROOT
ATOM      1  O   UNL     1       5.953   2.909   8.263  1.00  0.00    -0.341 OA
ENDROOT
BRANCH   1   2
ATOM      2  C   UNL     1       7.196   2.728   7.581  1.00  0.00     0.179 C 
ATOM      3  C   UNL     1       9.019   3.981   5.829  1.00  0.00     0.282 C 
ATOM      4  C   UNL     1       8.219   2.775   5.352  1.00  0.00     0.202 C 
ATOM      5  O   UNL     1       9.264   3.890   7.200  1.00  0.00    -0.347 OA
ATOM      6  C   UNL     1       6.989   2.611   6.127  1.00  0.00     0.179 C 
ATOM      7  C   UNL     1       8.048   3.930   7.935  1.00  0.00     0.198 C 
BRANCH   3   8
ATOM      8  O   UNL     1      10.247   3.989   5.192  1.00  0.00    -0.341 OA
BRANCH   8   9
ATOM      9  C   UNL     1      10.815   2.690   5.108  1.00  0.00     0.179 C 
ATOM     10  C   UNL     1      13.136   1.138   4.382  1.00  0.00     0.282 C 
ATOM     11  C   UNL     1      11.947   1.097   3.511  1.00  0.00     0.202 C 
ATOM     12  O   UNL     1      12.814   1.404   5.713  1.00  0.00    -0.347 OA
ATOM     13  C   UNL     1      11.066   2.406   3.657  1.00  0.00     0.179 C 
ATOM     14  C   UNL     1      12.122   2.675   5.772  1.00  0.00     0.198 C 
BRANCH  10  15
ATOM     15  O   UNL     1      13.681  -0.147   4.332  1.00  0.00    -0.341 OA
BRANCH  15  16
ATOM     16  C   UNL     1      14.907  -0.224   3.971  1.00  0.00     0.179 C 
ATOM     17  C   UNL     1      17.642   0.695   4.519  1.00  0.00     0.278 C 
ATOM     18  C   UNL     1      16.921   1.138   3.286  1.00  0.00     0.201 C 
ATOM     19  O   UNL     1      17.178  -0.576   4.935  1.00  0.00    -0.347 OA
ATOM     20  C   UNL     1      15.429   1.167   3.343  1.00  0.00     0.179 C 
ATOM     21  C   UNL     1      15.752  -0.593   5.211  1.00  0.00     0.198 C 
BRANCH  17  22
ATOM     22  O   UNL     1      19.018   0.599   4.375  1.00  0.00    -0.366 OA
ATOM     23  H   UNL     1      19.269   0.816   3.442  1.00  0.00     0.213 HD
ENDBRANCH  17  22
BRANCH  18  24
ATOM     24  O   UNL     1      17.284   2.549   2.911  1.00  0.00    -0.385 OA
ATOM     25  H   UNL     1      16.492   3.001   2.525  1.00  0.00     0.211 HD
ENDBRANCH  18  24
BRANCH  20  26
ATOM     26  O   UNL     1      14.800   1.413   2.140  1.00  0.00    -0.387 OA
ATOM     27  H   UNL     1      14.497   0.557   1.745  1.00  0.00     0.211 HD
ENDBRANCH  20  26
ENDBRANCH  15  16
ENDBRANCH  10  15
BRANCH  11  28
ATOM     28  O   UNL     1      12.294   0.895   2.136  1.00  0.00    -0.385 OA
ATOM     29  H   UNL     1      13.279   0.856   2.047  1.00  0.00     0.211 HD
ENDBRANCH  11  28
BRANCH  13  30
ATOM     30  O   UNL     1       9.886   2.379   2.867  1.00  0.00    -0.387 OA
ATOM     31  H   UNL     1       9.297   3.131   3.127  1.00  0.00     0.211 HD
ENDBRANCH  13  30
ENDBRANCH   8   9
ENDBRANCH   3   8
BRANCH   4  32
ATOM     32  O   UNL     1       7.894   2.955   3.984  1.00  0.00    -0.385 OA
ATOM     33  H   UNL     1       7.102   2.405   3.758  1.00  0.00     0.211 HD
ENDBRANCH   4  32
BRANCH   6  34
ATOM     34  O   UNL     1       6.408   1.334   5.805  1.00  0.00    -0.387 OA
ATOM     35  H   UNL     1       6.015   0.935   6.621  1.00  0.00     0.211 HD
ENDBRANCH   6  34
ENDBRANCH   1   2
BRANCH   1  36
ATOM     36  C   UNL     1       4.861   3.787   7.892  1.00  0.00     0.282 C 
ATOM     37  C   UNL     1       4.191   4.448   9.062  1.00  0.00     0.202 C 
ATOM     38  O   UNL     1       5.618   4.773   7.189  1.00  0.00    -0.347 OA
ATOM     39  C   UNL     1       3.438   5.756   8.702  1.00  0.00     0.179 C 
ATOM     40  C   UNL     1       4.778   5.650   6.574  1.00  0.00     0.198 C 
ATOM     41  C   UNL     1       4.020   6.515   7.562  1.00  0.00     0.179 C 
BRANCH  37  42
ATOM     42  O   UNL     1       3.284   3.540   9.736  1.00  0.00    -0.385 OA
ATOM     43  H   UNL     1       3.657   3.299  10.622  1.00  0.00     0.211 HD
ENDBRANCH  37  42
BRANCH  39  44
ATOM     44  O   UNL     1       3.392   6.482   9.911  1.00  0.00    -0.387 OA
ATOM     45  H   UNL     1       3.998   6.062  10.572  1.00  0.00     0.211 HD
ENDBRANCH  39  44
BRANCH  41  46
ATOM     46  O   UNL     1       2.955   7.122   6.840  1.00  0.00    -0.341 OA
BRANCH  46  47
ATOM     47  C   UNL     1       1.640   6.749   7.154  1.00  0.00     0.282 C 
ATOM     48  C   UNL     1       0.844   7.956   7.588  1.00  0.00     0.202 C 
ATOM     49  O   UNL     1       1.110   6.229   5.917  1.00  0.00    -0.347 OA
ATOM     50  C   UNL     1      -0.610   7.640   7.707  1.00  0.00     0.179 C 
ATOM     51  C   UNL     1      -0.228   5.768   6.115  1.00  0.00     0.198 C 
ATOM     52  C   UNL     1      -1.130   6.954   6.506  1.00  0.00     0.179 C 
BRANCH  48  53
ATOM     53  O   UNL     1       1.312   8.394   8.877  1.00  0.00    -0.385 OA
ATOM     54  H   UNL     1       1.618   7.612   9.400  1.00  0.00     0.211 HD
ENDBRANCH  48  53
BRANCH  50  55
ATOM     55  O   UNL     1      -1.338   8.836   7.955  1.00  0.00    -0.387 OA
ATOM     56  H   UNL     1      -2.289   8.699   7.718  1.00  0.00     0.211 HD
ENDBRANCH  50  55
BRANCH  52  57
ATOM     57  O   UNL     1      -2.425   6.486   6.774  1.00  0.00    -0.341 OA
BRANCH  57  58
ATOM     58  C   UNL     1      -3.529   7.112   6.218  1.00  0.00     0.282 C 
ATOM     59  C   UNL     1      -4.587   7.348   7.304  1.00  0.00     0.202 C 
ATOM     60  O   UNL     1      -3.096   8.395   5.766  1.00  0.00    -0.347 OA
ATOM     61  C   UNL     1      -5.721   8.224   6.785  1.00  0.00     0.179 C 
ATOM     62  C   UNL     1      -4.213   9.106   5.157  1.00  0.00     0.198 C 
ATOM     63  C   UNL     1      -5.254   9.430   6.135  1.00  0.00     0.171 C 
BRANCH  59  64
ATOM     64  O   UNL     1      -5.138   6.140   7.727  1.00  0.00    -0.385 OA
ATOM     65  H   UNL     1      -6.102   6.264   7.915  1.00  0.00     0.211 HD
ENDBRANCH  59  64
BRANCH  61  66
ATOM     66  O   UNL     1      -6.601   8.486   7.897  1.00  0.00    -0.387 OA
ATOM     67  H   UNL     1      -6.660   7.679   8.467  1.00  0.00     0.211 HD
ENDBRANCH  61  66
BRANCH  63  68
ATOM     68  O   UNL     1      -6.308  10.113   5.435  1.00  0.00    -0.388 OA
ATOM     69  H   UNL     1      -7.040   9.477   5.238  1.00  0.00     0.211 HD
ENDBRANCH  63  68
ENDBRANCH  57  58
ENDBRANCH  52  57
ENDBRANCH  46  47
ENDBRANCH  41  46
ENDBRANCH   1  36
TORSDOF 24
ENDMDL
MODEL 3
REMARK VINA RESULT:    -9.003      3.768     14.320
REMARK INTER + INTRA:         -26.910
REMARK INTER:                 -16.162
REMARK INTRA:                 -10.747
REMARK CONF_INDEPENDENT:        7.159
REMARK UNBOUND:               -10.747
REMARK SMILES O[C@@H]1[C@@H](O)[C@H](O[C@@H]2CO[C@@H](O[C@@H]3CO[C@@H](O[C@@H]4CO[C@@H](O[C@@H]5CO[C@@H](O[C@@H]6CO[C@@H](O)[C@H](O)[C@H]6O)[C@H](O)[C@H]5O)[C@H](O)[C@H]4O)[C@H](O)[C@H]3O)[C@H](O)[C@H]2O)OC[C@H]1O
REMARK SMILES IDX 16 1 17 2 20 3 40 4 19 5 42 6 18 7 21 8 22 9 25 10 36 11
REMARK SMILES IDX 24 12 38 13 23 14 26 15 27 16 30 17 32 18 29 19 34 20 28 21
REMARK SMILES IDX 31 22 33 24 35 26 37 28 39 30 41 32 43 34 15 36 44 37 14 38
REMARK SMILES IDX 46 39 13 40 12 41 45 42 47 44 11 46 10 47 48 48 9 49 50 50
REMARK SMILES IDX 8 51 7 52 49 53 51 55 6 57 5 58 3 59 52 60 2 61 53 62 54 63
REMARK SMILES IDX 4 64 1 66 55 68
REMARK H PARENT 31 23 33 25 35 27 37 29 39 31 41 33 43 35 45 43 47 45 49 54
REMARK H PARENT 51 56 4 65 1 67 55 69
ROOT
ATOM      1  O   UNL     1       5.400   3.602   8.596  1.00  0.00    -0.341 OA
ENDROOT
BRANCH   1   2
ATOM      2  C   UNL     1       4.594   4.782   8.604  1.00  0.00     0.179 C 
ATOM      3  C   UNL     1       4.404   7.385   9.676  1.00  0.00     0.282 C 
ATOM      4  C   UNL     1       3.404   6.317  10.102  1.00  0.00     0.202 C 
ATOM      5  O   UNL     1       4.824   7.161   8.364  1.00  0.00    -0.347 OA
ATOM      6  C   UNL     1       3.949   4.972   9.915  1.00  0.00     0.179 C 
ATOM      7  C   UNL     1       5.523   5.928   8.260  1.00  0.00     0.198 C 
BRANCH   3   8
ATOM      8  O   UNL     1       3.783   8.621   9.703  1.00  0.00    -0.341 OA
BRANCH   8   9
ATOM      9  C   UNL     1       2.488   8.583   9.121  1.00  0.00     0.179 C 
ATOM     10  C   UNL     1       0.572   9.959   7.461  1.00  0.00     0.282 C 
ATOM     11  C   UNL     1       0.344   9.898   8.916  1.00  0.00     0.202 C 
ATOM     12  O   UNL     1       1.309   8.872   6.990  1.00  0.00    -0.347 OA
ATOM     13  C   UNL     1       1.699   9.711   9.716  1.00  0.00     0.179 C 
ATOM     14  C   UNL     1       2.581   8.846   7.683  1.00  0.00     0.198 C 
BRANCH  10  15
ATOM     15  O   UNL     1      -0.697   9.887   6.880  1.00  0.00    -0.341 OA
BRANCH  15  16
ATOM     16  C   UNL     1      -1.537   9.114   7.459  1.00  0.00     0.179 C 
ATOM     17  C   UNL     1      -4.016   7.575   7.133  1.00  0.00     0.278 C 
ATOM     18  C   UNL     1      -3.985   8.797   7.993  1.00  0.00     0.201 C 
ATOM     19  O   UNL     1      -2.741   6.963   7.094  1.00  0.00    -0.347 OA
ATOM     20  C   UNL     1      -2.965   9.836   7.664  1.00  0.00     0.179 C 
ATOM     21  C   UNL     1      -1.706   7.848   6.589  1.00  0.00     0.198 C 
BRANCH  17  22
ATOM     22  O   UNL     1      -4.921   6.607   7.544  1.00  0.00    -0.366 OA
ATOM     23  H   UNL     1      -5.183   6.777   8.484  1.00  0.00     0.213 HD
ENDBRANCH  17  22
BRANCH  18  24
ATOM     24  O   UNL     1      -5.285   9.552   7.929  1.00  0.00    -0.385 OA
ATOM     25  H   UNL     1      -5.121  10.509   8.124  1.00  0.00     0.211 HD
ENDBRANCH  18  24
BRANCH  20  26
ATOM     26  O   UNL     1      -2.853  10.862   8.580  1.00  0.00    -0.387 OA
ATOM     27  H   UNL     1      -2.130  11.477   8.300  1.00  0.00     0.211 HD
ENDBRANCH  20  26
ENDBRANCH  15  16
ENDBRANCH  10  15
BRANCH  11  28
ATOM     28  O   UNL     1      -0.351  11.054   9.400  1.00  0.00    -0.385 OA
ATOM     29  H   UNL     1      -0.796  11.512   8.643  1.00  0.00     0.211 HD
ENDBRANCH  11  28
BRANCH  13  30
ATOM     30  O   UNL     1       1.512   9.602  11.120  1.00  0.00    -0.387 OA
ATOM     31  H   UNL     1       0.545   9.525  11.318  1.00  0.00     0.211 HD
ENDBRANCH  13  30
ENDBRANCH   8   9
ENDBRANCH   3   8
BRANCH   4  32
ATOM     32  O   UNL     1       3.084   6.510  11.470  1.00  0.00    -0.385 OA
ATOM     33  H   UNL     1       2.701   5.676  11.840  1.00  0.00     0.211 HD
ENDBRANCH   4  32
BRANCH   6  34
ATOM     34  O   UNL     1       2.887   4.016  10.094  1.00  0.00    -0.387 OA
ATOM     35  H   UNL     1       2.116   4.457  10.531  1.00  0.00     0.211 HD
ENDBRANCH   6  34
ENDBRANCH   1   2
BRANCH   1  36
ATOM     36  C   UNL     1       6.398   3.220   7.616  1.00  0.00     0.282 C 
ATOM     37  C   UNL     1       6.587   1.735   7.492  1.00  0.00     0.202 C 
ATOM     38  O   UNL     1       5.727   3.688   6.445  1.00  0.00    -0.347 OA
ATOM     39  C   UNL     1       7.192   1.287   6.136  1.00  0.00     0.179 C 
ATOM     40  C   UNL     1       6.557   3.598   5.370  1.00  0.00     0.198 C 
ATOM     41  C   UNL     1       6.849   2.162   4.983  1.00  0.00     0.179 C 
BRANCH  37  42
ATOM     42  O   UNL     1       7.394   1.211   8.577  1.00  0.00    -0.385 OA
ATOM     43  H   UNL     1       7.168   0.259   8.726  1.00  0.00     0.211 HD
ENDBRANCH  37  42
BRANCH  39  44
ATOM     44  O   UNL     1       6.771  -0.052   5.985  1.00  0.00    -0.387 OA
ATOM     45  H   UNL     1       6.979  -0.557   6.811  1.00  0.00     0.211 HD
ENDBRANCH  39  44
BRANCH  41  46
ATOM     46  O   UNL     1       7.966   2.196   4.101  1.00  0.00    -0.341 OA
BRANCH  46  47
ATOM     47  C   UNL     1       9.247   2.007   4.641  1.00  0.00     0.282 C 
ATOM     48  C   UNL     1       9.935   0.849   3.958  1.00  0.00     0.202 C 
ATOM     49  O   UNL     1       9.943   3.236   4.347  1.00  0.00    -0.347 OA
ATOM     50  C   UNL     1      11.375   0.765   4.342  1.00  0.00     0.179 C 
ATOM     51  C   UNL     1      11.265   3.188   4.889  1.00  0.00     0.198 C 
ATOM     52  C   UNL     1      12.065   2.065   4.204  1.00  0.00     0.179 C 
BRANCH  48  53
ATOM     53  O   UNL     1       9.296  -0.380   4.350  1.00  0.00    -0.385 OA
ATOM     54  H   UNL     1       8.352  -0.200   4.587  1.00  0.00     0.211 HD
ENDBRANCH  48  53
BRANCH  50  55
ATOM     55  O   UNL     1      12.019  -0.230   3.556  1.00  0.00    -0.387 OA
ATOM     56  H   UNL     1      12.844   0.145   3.160  1.00  0.00     0.211 HD
ENDBRANCH  50  55
BRANCH  52  57
ATOM     57  O   UNL     1      13.334   1.971   4.792  1.00  0.00    -0.341 OA
BRANCH  57  58
ATOM     58  C   UNL     1      13.725   0.812   5.443  1.00  0.00     0.282 C 
ATOM     59  C   UNL     1      15.083   0.349   4.900  1.00  0.00     0.202 C 
ATOM     60  O   UNL     1      13.914   1.151   6.818  1.00  0.00    -0.347 OA
ATOM     61  C   UNL     1      15.648  -0.793   5.736  1.00  0.00     0.179 C 
ATOM     62  C   UNL     1      14.316  -0.032   7.566  1.00  0.00     0.198 C 
ATOM     63  C   UNL     1      15.637  -0.516   7.157  1.00  0.00     0.171 C 
BRANCH  59  64
ATOM     64  O   UNL     1      14.962  -0.100   3.586  1.00  0.00    -0.385 OA
ATOM     65  H   UNL     1      14.126   0.255   3.192  1.00  0.00     0.211 HD
ENDBRANCH  59  64
BRANCH  61  66
ATOM     66  O   UNL     1      16.966  -1.082   5.227  1.00  0.00    -0.387 OA
ATOM     67  H   UNL     1      17.004  -0.860   4.263  1.00  0.00     0.211 HD
ENDBRANCH  61  66
BRANCH  63  68
ATOM     68  O   UNL     1      15.932  -1.685   7.941  1.00  0.00    -0.388 OA
ATOM     69  H   UNL     1      16.809  -2.053   7.667  1.00  0.00     0.211 HD
ENDBRANCH  63  68
ENDBRANCH  57  58
ENDBRANCH  52  57
ENDBRANCH  46  47
ENDBRANCH  41  46
ENDBRANCH   1  36
TORSDOF 24
ENDMDL
MODEL 4
REMARK VINA RESULT:    -8.843      3.464      5.908
REMARK INTER + INTRA:         -27.187
REMARK INTER:                 -16.002
REMARK INTRA:                 -11.184
REMARK CONF_INDEPENDENT:        7.159
REMARK UNBOUND:               -11.184
REMARK SMILES O[C@@H]1[C@@H](O)[C@H](O[C@@H]2CO[C@@H](O[C@@H]3CO[C@@H](O[C@@H]4CO[C@@H](O[C@@H]5CO[C@@H](O[C@@H]6CO[C@@H](O)[C@H](O)[C@H]6O)[C@H](O)[C@H]5O)[C@H](O)[C@H]4O)[C@H](O)[C@H]3O)[C@H](O)[C@H]2O)OC[C@H]1O
REMARK SMILES IDX 16 1 17 2 20 3 40 4 19 5 42 6 18 7 21 8 22 9 25 10 36 11
REMARK SMILES IDX 24 12 38 13 23 14 26 15 27 16 30 17 32 18 29 19 34 20 28 21
REMARK SMILES IDX 31 22 33 24 35 26 37 28 39 30 41 32 43 34 15 36 44 37 14 38
REMARK SMILES IDX 46 39 13 40 12 41 45 42 47 44 11 46 10 47 48 48 9 49 50 50
REMARK SMILES IDX 8 51 7 52 49 53 51 55 6 57 5 58 3 59 52 60 2 61 53 62 54 63
REMARK SMILES IDX 4 64 1 66 55 68
REMARK H PARENT 31 23 33 25 35 27 37 29 39 31 41 33 43 35 45 43 47 45 49 54
REMARK H PARENT 51 56 4 65 1 67 55 69
ROOT
ATOM      1  O   UNL     1       6.205   3.314   8.800  1.00  0.00    -0.341 OA
ENDROOT
BRANCH   1   2
ATOM      2  C   UNL     1       7.328   3.063   7.952  1.00  0.00     0.179 C 
ATOM      3  C   UNL     1       8.699   4.010   5.675  1.00  0.00     0.282 C 
ATOM      4  C   UNL     1       7.952   2.683   5.610  1.00  0.00     0.202 C 
ATOM      5  O   UNL     1       9.177   4.236   6.966  1.00  0.00    -0.347 OA
ATOM      6  C   UNL     1       6.892   2.619   6.616  1.00  0.00     0.179 C 
ATOM      7  C   UNL     1       8.105   4.362   7.889  1.00  0.00     0.198 C 
BRANCH   3   8
ATOM      8  O   UNL     1       9.795   3.952   4.833  1.00  0.00    -0.341 OA
BRANCH   8   9
ATOM      9  C   UNL     1      10.432   2.683   4.870  1.00  0.00     0.179 C 
ATOM     10  C   UNL     1      12.740   1.144   4.081  1.00  0.00     0.282 C 
ATOM     11  C   UNL     1      11.458   0.913   3.393  1.00  0.00     0.202 C 
ATOM     12  O   UNL     1      12.571   1.600   5.388  1.00  0.00    -0.347 OA
ATOM     13  C   UNL     1      10.518   2.187   3.457  1.00  0.00     0.179 C 
ATOM     14  C   UNL     1      11.809   2.832   5.348  1.00  0.00     0.198 C 
BRANCH  10  15
ATOM     15  O   UNL     1      13.358  -0.107   4.151  1.00  0.00    -0.341 OA
BRANCH  15  16
ATOM     16  C   UNL     1      14.625  -0.119   3.973  1.00  0.00     0.179 C 
ATOM     17  C   UNL     1      17.182   1.092   4.762  1.00  0.00     0.278 C 
ATOM     18  C   UNL     1      16.618   1.322   3.396  1.00  0.00     0.201 C 
ATOM     19  O   UNL     1      16.752  -0.156   5.272  1.00  0.00    -0.347 OA
ATOM     20  C   UNL     1      15.136   1.227   3.246  1.00  0.00     0.179 C 
ATOM     21  C   UNL     1      15.305  -0.264   5.353  1.00  0.00     0.198 C 
BRANCH  17  22
ATOM     22  O   UNL     1      18.568   1.100   4.819  1.00  0.00    -0.366 OA
ATOM     23  H   UNL     1      18.923   1.732   4.144  1.00  0.00     0.213 HD
ENDBRANCH  17  22
BRANCH  18  24
ATOM     24  O   UNL     1      16.933   2.704   2.894  1.00  0.00    -0.385 OA
ATOM     25  H   UNL     1      16.148   3.065   2.408  1.00  0.00     0.211 HD
ENDBRANCH  18  24
BRANCH  20  26
ATOM     26  O   UNL     1      14.672   1.273   1.948  1.00  0.00    -0.387 OA
ATOM     27  H   UNL     1      13.791   0.825   1.896  1.00  0.00     0.211 HD
ENDBRANCH  20  26
ENDBRANCH  15  16
ENDBRANCH  10  15
BRANCH  11  28
ATOM     28  O   UNL     1      11.643   0.514   2.029  1.00  0.00    -0.385 OA
ATOM     29  H   UNL     1      12.609   0.520   1.812  1.00  0.00     0.211 HD
ENDBRANCH  11  28
BRANCH  13  30
ATOM     30  O   UNL     1       9.253   1.984   2.844  1.00  0.00    -0.387 OA
ATOM     31  H   UNL     1       8.794   2.854   2.738  1.00  0.00     0.211 HD
ENDBRANCH  13  30
ENDBRANCH   8   9
ENDBRANCH   3   8
BRANCH   4  32
ATOM     32  O   UNL     1       7.386   2.539   4.318  1.00  0.00    -0.385 OA
ATOM     33  H   UNL     1       7.822   3.173   3.695  1.00  0.00     0.211 HD
ENDBRANCH   4  32
BRANCH   6  34
ATOM     34  O   UNL     1       6.394   1.269   6.675  1.00  0.00    -0.387 OA
ATOM     35  H   UNL     1       6.023   1.093   7.576  1.00  0.00     0.211 HD
ENDBRANCH   6  34
ENDBRANCH   1   2
BRANCH   1  36
ATOM     36  C   UNL     1       4.987   4.025   8.467  1.00  0.00     0.282 C 
ATOM     37  C   UNL     1       4.341   4.703   9.641  1.00  0.00     0.202 C 
ATOM     38  O   UNL     1       5.557   5.027   7.625  1.00  0.00    -0.347 OA
ATOM     39  C   UNL     1       3.408   5.880   9.255  1.00  0.00     0.179 C 
ATOM     40  C   UNL     1       4.568   5.746   7.026  1.00  0.00     0.198 C 
ATOM     41  C   UNL     1       3.796   6.600   8.012  1.00  0.00     0.179 C 
BRANCH  37  42
ATOM     42  O   UNL     1       3.612   3.759  10.464  1.00  0.00    -0.385 OA
ATOM     43  H   UNL     1       4.251   3.148  10.911  1.00  0.00     0.211 HD
ENDBRANCH  37  42
BRANCH  39  44
ATOM     44  O   UNL     1       3.374   6.698  10.405  1.00  0.00    -0.387 OA
ATOM     45  H   UNL     1       2.806   6.273  11.096  1.00  0.00     0.211 HD
ENDBRANCH  39  44
BRANCH  41  46
ATOM     46  O   UNL     1       2.607   7.017   7.349  1.00  0.00    -0.341 OA
BRANCH  46  47
ATOM     47  C   UNL     1       1.842   8.037   7.933  1.00  0.00     0.282 C 
ATOM     48  C   UNL     1       2.682   9.278   8.120  1.00  0.00     0.202 C 
ATOM     49  O   UNL     1       0.794   8.292   6.975  1.00  0.00    -0.347 OA
ATOM     50  C   UNL     1       1.848  10.448   8.522  1.00  0.00     0.179 C 
ATOM     51  C   UNL     1      -0.091   9.296   7.476  1.00  0.00     0.198 C 
ATOM     52  C   UNL     1       0.673  10.622   7.643  1.00  0.00     0.179 C 
BRANCH  48  53
ATOM     53  O   UNL     1       3.650   9.042   9.159  1.00  0.00    -0.385 OA
ATOM     54  H   UNL     1       3.183   8.802   9.998  1.00  0.00     0.211 HD
ENDBRANCH  48  53
BRANCH  50  55
ATOM     55  O   UNL     1       2.649  11.623   8.527  1.00  0.00    -0.387 OA
ATOM     56  H   UNL     1       2.090  12.405   8.291  1.00  0.00     0.211 HD
ENDBRANCH  50  55
BRANCH  52  57
ATOM     57  O   UNL     1      -0.179  11.583   8.207  1.00  0.00    -0.341 OA
BRANCH  57  58
ATOM     58  C   UNL     1      -0.385  11.624   9.577  1.00  0.00     0.282 C 
ATOM     59  C   UNL     1      -0.181  13.056  10.085  1.00  0.00     0.202 C 
ATOM     60  O   UNL     1      -1.755  11.288   9.802  1.00  0.00    -0.347 OA
ATOM     61  C   UNL     1      -0.607  13.189  11.542  1.00  0.00     0.179 C 
ATOM     62  C   UNL     1      -2.038  11.302  11.231  1.00  0.00     0.198 C 
ATOM     63  C   UNL     1      -1.926  12.647  11.799  1.00  0.00     0.171 C 
BRANCH  59  64
ATOM     64  O   UNL     1       1.160  13.425   9.997  1.00  0.00    -0.385 OA
ATOM     65  H   UNL     1       1.492  13.247   9.081  1.00  0.00     0.211 HD
ENDBRANCH  59  64
BRANCH  61  66
ATOM     66  O   UNL     1      -0.490  14.582  11.896  1.00  0.00    -0.387 OA
ATOM     67  H   UNL     1       0.217  15.003  11.347  1.00  0.00     0.211 HD
ENDBRANCH  61  66
BRANCH  63  68
ATOM     68  O   UNL     1      -2.209  12.549  13.205  1.00  0.00    -0.388 OA
ATOM     69  H   UNL     1      -1.429  12.160  13.672  1.00  0.00     0.211 HD
ENDBRANCH  63  68
ENDBRANCH  57  58
ENDBRANCH  52  57
ENDBRANCH  46  47
ENDBRANCH  41  46
ENDBRANCH   1  36
TORSDOF 24
ENDMDL
MODEL 5
REMARK VINA RESULT:    -8.652      2.050      3.050
REMARK INTER + INTRA:         -26.923
REMARK INTER:                 -15.811
REMARK INTRA:                 -11.112
REMARK CONF_INDEPENDENT:        7.159
REMARK UNBOUND:               -11.112
REMARK SMILES O[C@@H]1[C@@H](O)[C@H](O[C@@H]2CO[C@@H](O[C@@H]3CO[C@@H](O[C@@H]4CO[C@@H](O[C@@H]5CO[C@@H](O[C@@H]6CO[C@@H](O)[C@H](O)[C@H]6O)[C@H](O)[C@H]5O)[C@H](O)[C@H]4O)[C@H](O)[C@H]3O)[C@H](O)[C@H]2O)OC[C@H]1O
REMARK SMILES IDX 16 1 17 2 20 3 40 4 19 5 42 6 18 7 21 8 22 9 25 10 36 11
REMARK SMILES IDX 24 12 38 13 23 14 26 15 27 16 30 17 32 18 29 19 34 20 28 21
REMARK SMILES IDX 31 22 33 24 35 26 37 28 39 30 41 32 43 34 15 36 44 37 14 38
REMARK SMILES IDX 46 39 13 40 12 41 45 42 47 44 11 46 10 47 48 48 9 49 50 50
REMARK SMILES IDX 8 51 7 52 49 53 51 55 6 57 5 58 3 59 52 60 2 61 53 62 54 63
REMARK SMILES IDX 4 64 1 66 55 68
REMARK H PARENT 31 23 33 25 35 27 37 29 39 31 41 33 43 35 45 43 47 45 49 54
REMARK H PARENT 51 56 4 65 1 67 55 69
ROOT
ATOM      1  O   UNL     1      10.333   3.269   4.192  1.00  0.00    -0.341 OA
ENDROOT
BRANCH   1   2
ATOM      2  C   UNL     1      11.433   2.499   4.680  1.00  0.00     0.179 C 
ATOM      3  C   UNL     1      14.251   2.347   4.714  1.00  0.00     0.282 C 
ATOM      4  C   UNL     1      13.446   1.300   3.952  1.00  0.00     0.202 C 
ATOM      5  O   UNL     1      13.527   2.808   5.815  1.00  0.00    -0.347 OA
ATOM      6  C   UNL     1      12.127   1.812   3.577  1.00  0.00     0.179 C 
ATOM      7  C   UNL     1      12.343   3.474   5.399  1.00  0.00     0.198 C 
BRANCH   3   8
ATOM      8  O   UNL     1      15.408   1.762   5.198  1.00  0.00    -0.341 OA
BRANCH   8   9
ATOM      9  C   UNL     1      15.146   0.549   5.889  1.00  0.00     0.179 C 
ATOM     10  C   UNL     1      16.141  -1.384   7.785  1.00  0.00     0.282 C 
ATOM     11  C   UNL     1      16.105  -1.738   6.355  1.00  0.00     0.202 C 
ATOM     12  O   UNL     1      15.163  -0.451   8.129  1.00  0.00    -0.347 OA
ATOM     13  C   UNL     1      16.162  -0.454   5.429  1.00  0.00     0.179 C 
ATOM     14  C   UNL     1      15.362   0.739   7.326  1.00  0.00     0.198 C 
BRANCH  10  15
ATOM     15  O   UNL     1      15.851  -2.566   8.471  1.00  0.00    -0.341 OA
BRANCH  15  16
ATOM     16  C   UNL     1      16.258  -2.627   9.683  1.00  0.00     0.179 C 
ATOM     17  C   UNL     1      16.385  -4.288  12.101  1.00  0.00     0.278 C 
ATOM     18  C   UNL     1      15.527  -3.064  12.061  1.00  0.00     0.201 C 
ATOM     19  O   UNL     1      17.488  -4.150  11.225  1.00  0.00    -0.347 OA
ATOM     20  C   UNL     1      15.026  -2.627  10.724  1.00  0.00     0.179 C 
ATOM     21  C   UNL     1      17.088  -3.921   9.848  1.00  0.00     0.198 C 
BRANCH  17  22
ATOM     22  O   UNL     1      16.896  -4.590  13.356  1.00  0.00    -0.366 OA
ATOM     23  H   UNL     1      16.248  -4.313  14.052  1.00  0.00     0.213 HD
ENDBRANCH  17  22
BRANCH  18  24
ATOM     24  O   UNL     1      14.269  -3.245  12.864  1.00  0.00    -0.385 OA
ATOM     25  H   UNL     1      13.522  -2.772  12.417  1.00  0.00     0.211 HD
ENDBRANCH  18  24
BRANCH  20  26
ATOM     26  O   UNL     1      14.387  -1.405  10.707  1.00  0.00    -0.387 OA
ATOM     27  H   UNL     1      13.997  -1.249   9.810  1.00  0.00     0.211 HD
ENDBRANCH  20  26
ENDBRANCH  15  16
ENDBRANCH  10  15
BRANCH  11  28
ATOM     28  O   UNL     1      17.158  -2.642   5.998  1.00  0.00    -0.385 OA
ATOM     29  H   UNL     1      17.073  -3.473   6.530  1.00  0.00     0.211 HD
ENDBRANCH  11  28
BRANCH  13  30
ATOM     30  O   UNL     1      16.082  -0.756   4.044  1.00  0.00    -0.387 OA
ATOM     31  H   UNL     1      15.164  -0.577   3.719  1.00  0.00     0.211 HD
ENDBRANCH  13  30
ENDBRANCH   8   9
ENDBRANCH   3   8
BRANCH   4  32
ATOM     32  O   UNL     1      14.161   0.936   2.783  1.00  0.00    -0.385 OA
ATOM     33  H   UNL     1      15.127   0.879   2.992  1.00  0.00     0.211 HD
ENDBRANCH   4  32
BRANCH   6  34
ATOM     34  O   UNL     1      11.331   0.716   3.089  1.00  0.00    -0.387 OA
ATOM     35  H   UNL     1      11.031   0.160   3.851  1.00  0.00     0.211 HD
ENDBRANCH   6  34
ENDBRANCH   1   2
BRANCH   1  36
ATOM     36  C   UNL     1       8.925   2.929   4.240  1.00  0.00     0.282 C 
ATOM     37  C   UNL     1       8.638   1.639   4.953  1.00  0.00     0.202 C 
ATOM     38  O   UNL     1       8.479   4.008   5.062  1.00  0.00    -0.347 OA
ATOM     39  C   UNL     1       7.189   1.528   5.498  1.00  0.00     0.179 C 
ATOM     40  C   UNL     1       7.120   4.015   5.119  1.00  0.00     0.198 C 
ATOM     41  C   UNL     1       6.567   2.825   5.878  1.00  0.00     0.179 C 
BRANCH  37  42
ATOM     42  O   UNL     1       8.927   0.493   4.114  1.00  0.00    -0.385 OA
ATOM     43  H   UNL     1       9.187   0.803   3.210  1.00  0.00     0.211 HD
ENDBRANCH  37  42
BRANCH  39  44
ATOM     44  O   UNL     1       7.280   0.601   6.558  1.00  0.00    -0.387 OA
ATOM     45  H   UNL     1       6.442   0.621   7.086  1.00  0.00     0.211 HD
ENDBRANCH  39  44
BRANCH  41  46
ATOM     46  O   UNL     1       5.177   2.758   5.577  1.00  0.00    -0.341 OA
BRANCH  46  47
ATOM     47  C   UNL     1       4.310   3.640   6.238  1.00  0.00     0.282 C 
ATOM     48  C   UNL     1       4.859   3.989   7.601  1.00  0.00     0.202 C 
ATOM     49  O   UNL     1       4.289   4.815   5.401  1.00  0.00    -0.347 OA
ATOM     50  C   UNL     1       4.086   5.097   8.235  1.00  0.00     0.179 C 
ATOM     51  C   UNL     1       3.396   5.788   5.948  1.00  0.00     0.198 C 
ATOM     52  C   UNL     1       3.913   6.248   7.324  1.00  0.00     0.179 C 
BRANCH  48  53
ATOM     53  O   UNL     1       4.769   2.835   8.457  1.00  0.00    -0.385 OA
ATOM     54  H   UNL     1       4.961   2.018   7.932  1.00  0.00     0.211 HD
ENDBRANCH  48  53
BRANCH  50  55
ATOM     55  O   UNL     1       4.733   5.501   9.436  1.00  0.00    -0.387 OA
ATOM     56  H   UNL     1       4.429   6.409   9.685  1.00  0.00     0.211 HD
ENDBRANCH  50  55
BRANCH  52  57
ATOM     57  O   UNL     1       2.995   7.143   7.891  1.00  0.00    -0.341 OA
BRANCH  57  58
ATOM     58  C   UNL     1       3.370   8.445   8.183  1.00  0.00     0.282 C 
ATOM     59  C   UNL     1       2.180   9.386   7.956  1.00  0.00     0.202 C 
ATOM     60  O   UNL     1       3.680   8.487   9.576  1.00  0.00    -0.347 OA
ATOM     61  C   UNL     1       2.482  10.789   8.470  1.00  0.00     0.179 C 
ATOM     62  C   UNL     1       4.095   9.832   9.949  1.00  0.00     0.198 C 
ATOM     63  C   UNL     1       3.001  10.798   9.822  1.00  0.00     0.171 C 
BRANCH  59  64
ATOM     64  O   UNL     1       1.879   9.483   6.599  1.00  0.00    -0.385 OA
ATOM     65  H   UNL     1       1.575  10.403   6.392  1.00  0.00     0.211 HD
ENDBRANCH  59  64
BRANCH  61  66
ATOM     66  O   UNL     1       1.277  11.566   8.322  1.00  0.00    -0.387 OA
ATOM     67  H   UNL     1       1.488  12.527   8.435  1.00  0.00     0.211 HD
ENDBRANCH  61  66
BRANCH  63  68
ATOM     68  O   UNL     1       3.515  12.087  10.198  1.00  0.00    -0.388 OA
ATOM     69  H   UNL     1       3.034  12.793   9.698  1.00  0.00     0.211 HD
ENDBRANCH  63  68
ENDBRANCH  57  58
ENDBRANCH  52  57
ENDBRANCH  46  47
ENDBRANCH  41  46
ENDBRANCH   1  36
TORSDOF 24
ENDMDL
MODEL 6
REMARK VINA RESULT:    -8.460      4.333     12.210
REMARK INTER + INTRA:         -27.656
REMARK INTER:                 -15.619
REMARK INTRA:                 -12.037
REMARK CONF_INDEPENDENT:        7.159
REMARK UNBOUND:               -12.037
REMARK SMILES O[C@@H]1[C@@H](O)[C@H](O[C@@H]2CO[C@@H](O[C@@H]3CO[C@@H](O[C@@H]4CO[C@@H](O[C@@H]5CO[C@@H](O[C@@H]6CO[C@@H](O)[C@H](O)[C@H]6O)[C@H](O)[C@H]5O)[C@H](O)[C@H]4O)[C@H](O)[C@H]3O)[C@H](O)[C@H]2O)OC[C@H]1O
REMARK SMILES IDX 16 1 17 2 20 3 40 4 19 5 42 6 18 7 21 8 22 9 25 10 36 11
REMARK SMILES IDX 24 12 38 13 23 14 26 15 27 16 30 17 32 18 29 19 34 20 28 21
REMARK SMILES IDX 31 22 33 24 35 26 37 28 39 30 41 32 43 34 15 36 44 37 14 38
REMARK SMILES IDX 46 39 13 40 12 41 45 42 47 44 11 46 10 47 48 48 9 49 50 50
REMARK SMILES IDX 8 51 7 52 49 53 51 55 6 57 5 58 3 59 52 60 2 61 53 62 54 63
REMARK SMILES IDX 4 64 1 66 55 68
REMARK H PARENT 31 23 33 25 35 27 37 29 39 31 41 33 43 35 45 43 47 45 49 54
REMARK H PARENT 51 56 4 65 1 67 55 69
ROOT
ATOM      1  O   UNL     1       9.299   9.859  11.483  1.00  0.00    -0.341 OA
ENDROOT
BRANCH   1   2
ATOM      2  C   UNL     1       7.963  10.355  11.582  1.00  0.00     0.179 C 
ATOM      3  C   UNL     1       5.320   9.929  10.690  1.00  0.00     0.282 C 
ATOM      4  C   UNL     1       6.082  11.167  10.232  1.00  0.00     0.202 C 
ATOM      5  O   UNL     1       5.733   9.550  11.968  1.00  0.00    -0.347 OA
ATOM      6  C   UNL     1       7.529  10.961  10.311  1.00  0.00     0.179 C 
ATOM      7  C   UNL     1       7.102   9.169  11.966  1.00  0.00     0.198 C 
BRANCH   3   8
ATOM      8  O   UNL     1       3.972  10.233  10.766  1.00  0.00    -0.341 OA
BRANCH   8   9
ATOM      9  C   UNL     1       3.160   9.213  10.202  1.00  0.00     0.179 C 
ATOM     10  C   UNL     1       3.018   7.050   8.299  1.00  0.00     0.282 C 
ATOM     11  C   UNL     1       2.317   8.312   8.001  1.00  0.00     0.202 C 
ATOM     12  O   UNL     1       3.142   6.819   9.669  1.00  0.00    -0.347 OA
ATOM     13  C   UNL     1       2.976   9.542   8.751  1.00  0.00     0.179 C 
ATOM     14  C   UNL     1       3.864   7.929  10.257  1.00  0.00     0.198 C 
BRANCH  10  15
ATOM     15  O   UNL     1       2.207   6.040   7.776  1.00  0.00    -0.341 OA
BRANCH  15  16
ATOM     16  C   UNL     1       2.795   5.169   7.046  1.00  0.00     0.179 C 
ATOM     17  C   UNL     1       5.319   4.427   5.741  1.00  0.00     0.278 C 
ATOM     18  C   UNL     1       4.138   4.853   4.930  1.00  0.00     0.201 C 
ATOM     19  O   UNL     1       4.900   3.837   6.956  1.00  0.00    -0.347 OA
ATOM     20  C   UNL     1       3.150   5.759   5.588  1.00  0.00     0.179 C 
ATOM     21  C   UNL     1       4.091   4.730   7.767  1.00  0.00     0.198 C 
BRANCH  17  22
ATOM     22  O   UNL     1       6.150   3.513   5.108  1.00  0.00    -0.366 OA
ATOM     23  H   UNL     1       7.003   3.954   4.867  1.00  0.00     0.213 HD
ENDBRANCH  17  22
BRANCH  18  24
ATOM     24  O   UNL     1       4.555   5.620   3.705  1.00  0.00    -0.385 OA
ATOM     25  H   UNL     1       5.493   5.396   3.479  1.00  0.00     0.211 HD
ENDBRANCH  18  24
BRANCH  20  26
ATOM     26  O   UNL     1       1.994   5.988   4.871  1.00  0.00    -0.387 OA
ATOM     27  H   UNL     1       2.182   5.899   3.903  1.00  0.00     0.211 HD
ENDBRANCH  20  26
ENDBRANCH  15  16
ENDBRANCH  10  15
BRANCH  11  28
ATOM     28  O   UNL     1       2.257   8.575   6.594  1.00  0.00    -0.385 OA
ATOM     29  H   UNL     1       2.405   7.733   6.095  1.00  0.00     0.211 HD
ENDBRANCH  11  28
BRANCH  13  30
ATOM     30  O   UNL     1       2.297  10.769   8.523  1.00  0.00    -0.387 OA
ATOM     31  H   UNL     1       2.740  11.491   9.034  1.00  0.00     0.211 HD
ENDBRANCH  13  30
ENDBRANCH   8   9
ENDBRANCH   3   8
BRANCH   4  32
ATOM     32  O   UNL     1       5.719  11.457   8.892  1.00  0.00    -0.385 OA
ATOM     33  H   UNL     1       6.426  12.007   8.471  1.00  0.00     0.211 HD
ENDBRANCH   4  32
BRANCH   6  34
ATOM     34  O   UNL     1       8.186  12.226  10.109  1.00  0.00    -0.387 OA
ATOM     35  H   UNL     1       9.166  12.087  10.074  1.00  0.00     0.211 HD
ENDBRANCH   6  34
ENDBRANCH   1   2
BRANCH   1  36
ATOM     36  C   UNL     1       9.819   8.904  10.524  1.00  0.00     0.282 C 
ATOM     37  C   UNL     1      10.868   9.472   9.612  1.00  0.00     0.202 C 
ATOM     38  O   UNL     1      10.455   8.014  11.443  1.00  0.00    -0.347 OA
ATOM     39  C   UNL     1      11.807   8.406   8.989  1.00  0.00     0.179 C 
ATOM     40  C   UNL     1      10.888   6.904  10.787  1.00  0.00     0.198 C 
ATOM     41  C   UNL     1      12.030   7.203   9.835  1.00  0.00     0.179 C 
BRANCH  37  42
ATOM     42  O   UNL     1      10.276  10.270   8.556  1.00  0.00    -0.385 OA
ATOM     43  H   UNL     1       9.743  11.003   8.956  1.00  0.00     0.211 HD
ENDBRANCH  37  42
BRANCH  39  44
ATOM     44  O   UNL     1      12.987   9.114   8.674  1.00  0.00    -0.387 OA
ATOM     45  H   UNL     1      13.211   8.973   7.720  1.00  0.00     0.211 HD
ENDBRANCH  39  44
BRANCH  41  46
ATOM     46  O   UNL     1      12.156   6.073   8.980  1.00  0.00    -0.341 OA
BRANCH  46  47
ATOM     47  C   UNL     1      11.213   5.905   7.955  1.00  0.00     0.282 C 
ATOM     48  C   UNL     1      11.896   5.924   6.608  1.00  0.00     0.202 C 
ATOM     49  O   UNL     1      10.646   4.601   8.200  1.00  0.00    -0.347 OA
ATOM     50  C   UNL     1      10.964   5.521   5.516  1.00  0.00     0.179 C 
ATOM     51  C   UNL     1       9.627   4.323   7.237  1.00  0.00     0.198 C 
ATOM     52  C   UNL     1      10.249   4.266   5.829  1.00  0.00     0.179 C 
BRANCH  48  53
ATOM     53  O   UNL     1      12.357   7.260   6.331  1.00  0.00    -0.385 OA
ATOM     54  H   UNL     1      12.822   7.621   7.126  1.00  0.00     0.211 HD
ENDBRANCH  48  53
BRANCH  50  55
ATOM     55  O   UNL     1      11.686   5.395   4.297  1.00  0.00    -0.387 OA
ATOM     56  H   UNL     1      12.153   4.522   4.278  1.00  0.00     0.211 HD
ENDBRANCH  50  55
BRANCH  52  57
ATOM     57  O   UNL     1       9.235   4.070   4.880  1.00  0.00    -0.341 OA
BRANCH  57  58
ATOM     58  C   UNL     1       9.097   2.849   4.238  1.00  0.00     0.282 C 
ATOM     59  C   UNL     1      10.464   2.159   4.145  1.00  0.00     0.202 C 
ATOM     60  O   UNL     1       8.270   2.034   5.069  1.00  0.00    -0.347 OA
ATOM     61  C   UNL     1      10.324   0.727   3.645  1.00  0.00     0.179 C 
ATOM     62  C   UNL     1       8.074   0.733   4.444  1.00  0.00     0.198 C 
ATOM     63  C   UNL     1       9.321  -0.030   4.365  1.00  0.00     0.171 C 
BRANCH  59  64
ATOM     64  O   UNL     1      11.302   2.841   3.265  1.00  0.00    -0.385 OA
ATOM     65  H   UNL     1      10.948   3.752   3.110  1.00  0.00     0.211 HD
ENDBRANCH  59  64
BRANCH  61  66
ATOM     66  O   UNL     1      11.633   0.126   3.700  1.00  0.00    -0.387 OA
ATOM     67  H   UNL     1      12.323   0.834   3.670  1.00  0.00     0.211 HD
ENDBRANCH  61  66
BRANCH  63  68
ATOM     68  O   UNL     1       9.023  -1.284   3.725  1.00  0.00    -0.388 OA
ATOM     69  H   UNL     1       8.105  -1.257   3.359  1.00  0.00     0.211 HD
ENDBRANCH  63  68
ENDBRANCH  57  58
ENDBRANCH  52  57
ENDBRANCH  46  47
ENDBRANCH  41  46
ENDBRANCH   1  36
TORSDOF 24
ENDMDL
MODEL 7
REMARK VINA RESULT:    -8.397      1.809     11.501
REMARK INTER + INTRA:         -26.690
REMARK INTER:                 -15.556
REMARK INTRA:                 -11.134
REMARK CONF_INDEPENDENT:        7.159
REMARK UNBOUND:               -11.134
REMARK SMILES O[C@@H]1[C@@H](O)[C@H](O[C@@H]2CO[C@@H](O[C@@H]3CO[C@@H](O[C@@H]4CO[C@@H](O[C@@H]5CO[C@@H](O[C@@H]6CO[C@@H](O)[C@H](O)[C@H]6O)[C@H](O)[C@H]5O)[C@H](O)[C@H]4O)[C@H](O)[C@H]3O)[C@H](O)[C@H]2O)OC[C@H]1O
REMARK SMILES IDX 16 1 17 2 20 3 40 4 19 5 42 6 18 7 21 8 22 9 25 10 36 11
REMARK SMILES IDX 24 12 38 13 23 14 26 15 27 16 30 17 32 18 29 19 34 20 28 21
REMARK SMILES IDX 31 22 33 24 35 26 37 28 39 30 41 32 43 34 15 36 44 37 14 38
REMARK SMILES IDX 46 39 13 40 12 41 45 42 47 44 11 46 10 47 48 48 9 49 50 50
REMARK SMILES IDX 8 51 7 52 49 53 51 55 6 57 5 58 3 59 52 60 2 61 53 62 54 63
REMARK SMILES IDX 4 64 1 66 55 68
REMARK H PARENT 31 23 33 25 35 27 37 29 39 31 41 33 43 35 45 43 47 45 49 54
REMARK H PARENT 51 56 4 65 1 67 55 69
ROOT
ATOM      1  O   UNL     1       4.825   3.584   8.666  1.00  0.00    -0.341 OA
ENDROOT
BRANCH   1   2
ATOM      2  C   UNL     1       4.128   4.786   9.000  1.00  0.00     0.179 C 
ATOM      3  C   UNL     1       4.361   7.219  10.410  1.00  0.00     0.282 C 
ATOM      4  C   UNL     1       3.396   6.148  10.904  1.00  0.00     0.202 C 
ATOM      5  O   UNL     1       4.480   7.162   9.021  1.00  0.00    -0.347 OA
ATOM      6  C   UNL     1       3.788   4.819  10.433  1.00  0.00     0.179 C 
ATOM      7  C   UNL     1       5.049   5.926   8.611  1.00  0.00     0.198 C 
BRANCH   3   8
ATOM      8  O   UNL     1       3.853   8.466  10.729  1.00  0.00    -0.341 OA
BRANCH   8   9
ATOM      9  C   UNL     1       4.816   9.288  11.374  1.00  0.00     0.179 C 
ATOM     10  C   UNL     1       7.537   9.502  12.303  1.00  0.00     0.282 C 
ATOM     11  C   UNL     1       6.457   9.324  13.289  1.00  0.00     0.202 C 
ATOM     12  O   UNL     1       7.102  10.145  11.144  1.00  0.00    -0.347 OA
ATOM     13  C   UNL     1       5.194   8.608  12.656  1.00  0.00     0.179 C 
ATOM     14  C   UNL     1       6.032   9.361  10.560  1.00  0.00     0.198 C 
BRANCH  10  15
ATOM     15  O   UNL     1       8.472  10.338  12.918  1.00  0.00    -0.341 OA
BRANCH  15  16
ATOM     16  C   UNL     1       9.675   9.902  12.959  1.00  0.00     0.179 C 
ATOM     17  C   UNL     1      11.683   8.240  11.606  1.00  0.00     0.278 C 
ATOM     18  C   UNL     1      11.089   7.810  12.910  1.00  0.00     0.201 C 
ATOM     19  O   UNL     1      11.682   9.651  11.502  1.00  0.00    -0.347 OA
ATOM     20  C   UNL     1       9.723   8.314  13.235  1.00  0.00     0.179 C 
ATOM     21  C   UNL     1      10.350  10.223  11.605  1.00  0.00     0.198 C 
BRANCH  17  22
ATOM     22  O   UNL     1      12.989   7.817  11.403  1.00  0.00    -0.366 OA
ATOM     23  H   UNL     1      13.071   6.864  11.659  1.00  0.00     0.213 HD
ENDBRANCH  17  22
BRANCH  18  24
ATOM     24  O   UNL     1      10.938   6.316  12.982  1.00  0.00    -0.385 OA
ATOM     25  H   UNL     1       9.997   6.090  13.194  1.00  0.00     0.211 HD
ENDBRANCH  18  24
BRANCH  20  26
ATOM     26  O   UNL     1       9.283   8.039  14.514  1.00  0.00    -0.387 OA
ATOM     27  H   UNL     1       8.653   7.276  14.489  1.00  0.00     0.211 HD
ENDBRANCH  20  26
ENDBRANCH  15  16
ENDBRANCH  10  15
BRANCH  11  28
ATOM     28  O   UNL     1       6.898   8.601  14.445  1.00  0.00    -0.385 OA
ATOM     29  H   UNL     1       7.840   8.834  14.641  1.00  0.00     0.211 HD
ENDBRANCH  11  28
BRANCH  13  30
ATOM     30  O   UNL     1       4.115   8.463  13.568  1.00  0.00    -0.387 OA
ATOM     31  H   UNL     1       3.282   8.274  13.066  1.00  0.00     0.211 HD
ENDBRANCH  13  30
ENDBRANCH   8   9
ENDBRANCH   3   8
BRANCH   4  32
ATOM     32  O   UNL     1       3.384   6.162  12.321  1.00  0.00    -0.385 OA
ATOM     33  H   UNL     1       3.598   7.073  12.644  1.00  0.00     0.211 HD
ENDBRANCH   4  32
BRANCH   6  34
ATOM     34  O   UNL     1       2.719   3.897  10.715  1.00  0.00    -0.387 OA
ATOM     35  H   UNL     1       3.029   2.971  10.548  1.00  0.00     0.211 HD
ENDBRANCH   6  34
ENDBRANCH   1   2
BRANCH   1  36
ATOM     36  C   UNL     1       5.925   3.428   7.734  1.00  0.00     0.282 C 
ATOM     37  C   UNL     1       6.608   2.094   7.820  1.00  0.00     0.202 C 
ATOM     38  O   UNL     1       5.175   3.474   6.521  1.00  0.00    -0.347 OA
ATOM     39  C   UNL     1       7.372   1.692   6.532  1.00  0.00     0.179 C 
ATOM     40  C   UNL     1       6.021   3.521   5.455  1.00  0.00     0.198 C 
ATOM     41  C   UNL     1       6.792   2.230   5.272  1.00  0.00     0.179 C 
BRANCH  37  42
ATOM     42  O   UNL     1       7.507   2.030   8.955  1.00  0.00    -0.385 OA
ATOM     43  H   UNL     1       6.980   1.979   9.792  1.00  0.00     0.211 HD
ENDBRANCH  37  42
BRANCH  39  44
ATOM     44  O   UNL     1       7.432   0.282   6.581  1.00  0.00    -0.387 OA
ATOM     45  H   UNL     1       7.013  -0.037   7.419  1.00  0.00     0.211 HD
ENDBRANCH  39  44
BRANCH  41  46
ATOM     46  O   UNL     1       7.860   2.515   4.376  1.00  0.00    -0.341 OA
BRANCH  46  47
ATOM     47  C   UNL     1       9.173   2.263   4.803  1.00  0.00     0.282 C 
ATOM     48  C   UNL     1       9.800   1.184   3.953  1.00  0.00     0.202 C 
ATOM     49  O   UNL     1       9.862   3.514   4.597  1.00  0.00    -0.347 OA
ATOM     50  C   UNL     1      11.261   1.053   4.226  1.00  0.00     0.179 C 
ATOM     51  C   UNL     1      11.217   3.402   5.039  1.00  0.00     0.198 C 
ATOM     52  C   UNL     1      11.955   2.357   4.182  1.00  0.00     0.179 C 
BRANCH  48  53
ATOM     53  O   UNL     1       9.175  -0.078   4.252  1.00  0.00    -0.385 OA
ATOM     54  H   UNL     1       8.255   0.079   4.582  1.00  0.00     0.211 HD
ENDBRANCH  48  53
BRANCH  50  55
ATOM     55  O   UNL     1      11.839   0.147   3.294  1.00  0.00    -0.387 OA
ATOM     56  H   UNL     1      12.765  -0.066   3.571  1.00  0.00     0.211 HD
ENDBRANCH  50  55
BRANCH  52  57
ATOM     57  O   UNL     1      13.261   2.195   4.668  1.00  0.00    -0.341 OA
BRANCH  57  58
ATOM     58  C   UNL     1      13.604   1.070   5.401  1.00  0.00     0.282 C 
ATOM     59  C   UNL     1      14.912   0.481   4.857  1.00  0.00     0.202 C 
ATOM     60  O   UNL     1      13.862   1.506   6.736  1.00  0.00    -0.347 OA
ATOM     61  C   UNL     1      15.439  -0.623   5.766  1.00  0.00     0.179 C 
ATOM     62  C   UNL     1      14.220   0.365   7.567  1.00  0.00     0.198 C 
ATOM     63  C   UNL     1      15.494  -0.231   7.160  1.00  0.00     0.171 C 
BRANCH  59  64
ATOM     64  O   UNL     1      14.719  -0.064   3.589  1.00  0.00    -0.385 OA
ATOM     65  H   UNL     1      13.976   0.409   3.136  1.00  0.00     0.211 HD
ENDBRANCH  59  64
BRANCH  61  66
ATOM     66  O   UNL     1      16.718  -1.033   5.244  1.00  0.00    -0.387 OA
ATOM     67  H   UNL     1      16.686  -1.994   5.010  1.00  0.00     0.211 HD
ENDBRANCH  61  66
BRANCH  63  68
ATOM     68  O   UNL     1      15.747  -1.349   8.028  1.00  0.00    -0.388 OA
ATOM     69  H   UNL     1      15.949  -1.020   8.939  1.00  0.00     0.211 HD
ENDBRANCH  63  68
ENDBRANCH  57  58
ENDBRANCH  52  57
ENDBRANCH  46  47
ENDBRANCH  41  46
ENDBRANCH   1  36
TORSDOF 24
ENDMDL
MODEL 8
REMARK VINA RESULT:    -7.850      4.486      7.706
REMARK INTER + INTRA:         -27.486
REMARK INTER:                 -15.010
REMARK INTRA:                 -12.477
REMARK CONF_INDEPENDENT:        7.159
REMARK UNBOUND:               -12.477
REMARK SMILES O[C@@H]1[C@@H](O)[C@H](O[C@@H]2CO[C@@H](O[C@@H]3CO[C@@H](O[C@@H]4CO[C@@H](O[C@@H]5CO[C@@H](O[C@@H]6CO[C@@H](O)[C@H](O)[C@H]6O)[C@H](O)[C@H]5O)[C@H](O)[C@H]4O)[C@H](O)[C@H]3O)[C@H](O)[C@H]2O)OC[C@H]1O
REMARK SMILES IDX 16 1 17 2 20 3 40 4 19 5 42 6 18 7 21 8 22 9 25 10 36 11
REMARK SMILES IDX 24 12 38 13 23 14 26 15 27 16 30 17 32 18 29 19 34 20 28 21
REMARK SMILES IDX 31 22 33 24 35 26 37 28 39 30 41 32 43 34 15 36 44 37 14 38
REMARK SMILES IDX 46 39 13 40 12 41 45 42 47 44 11 46 10 47 48 48 9 49 50 50
REMARK SMILES IDX 8 51 7 52 49 53 51 55 6 57 5 58 3 59 52 60 2 61 53 62 54 63
REMARK SMILES IDX 4 64 1 66 55 68
REMARK H PARENT 31 23 33 25 35 27 37 29 39 31 41 33 43 35 45 43 47 45 49 54
REMARK H PARENT 51 56 4 65 1 67 55 69
ROOT
ATOM      1  O   UNL     1       9.938   3.015   4.668  1.00  0.00    -0.341 OA
ENDROOT
BRANCH   1   2
ATOM      2  C   UNL     1      10.795   3.688   5.591  1.00  0.00     0.179 C 
ATOM      3  C   UNL     1      10.884   5.777   7.486  1.00  0.00     0.282 C 
ATOM      4  C   UNL     1      11.662   5.906   6.182  1.00  0.00     0.202 C 
ATOM      5  O   UNL     1      10.802   4.439   7.873  1.00  0.00    -0.347 OA
ATOM      6  C   UNL     1      11.091   5.058   5.135  1.00  0.00     0.179 C 
ATOM      7  C   UNL     1      10.069   3.680   6.921  1.00  0.00     0.198 C 
BRANCH   3   8
ATOM      8  O   UNL     1      11.562   6.454   8.484  1.00  0.00    -0.341 OA
BRANCH   8   9
ATOM      9  C   UNL     1      10.861   6.430   9.720  1.00  0.00     0.179 C 
ATOM     10  C   UNL     1      10.859   7.258  12.482  1.00  0.00     0.282 C 
ATOM     11  C   UNL     1      11.124   5.844  12.160  1.00  0.00     0.202 C 
ATOM     12  O   UNL     1      10.061   7.884  11.525  1.00  0.00    -0.347 OA
ATOM     13  C   UNL     1      11.710   5.674  10.698  1.00  0.00     0.179 C 
ATOM     14  C   UNL     1      10.728   7.793  10.242  1.00  0.00     0.198 C 
BRANCH  10  15
ATOM     15  O   UNL     1      10.140   7.240  13.680  1.00  0.00    -0.341 OA
BRANCH  15  16
ATOM     16  C   UNL     1       9.726   8.375  14.104  1.00  0.00     0.179 C 
ATOM     17  C   UNL     1       8.237   9.758  16.224  1.00  0.00     0.278 C 
ATOM     18  C   UNL     1       7.676   9.652  14.842  1.00  0.00     0.201 C 
ATOM     19  O   UNL     1       9.651   9.741  16.188  1.00  0.00    -0.347 OA
ATOM     20  C   UNL     1       8.120   8.493  14.013  1.00  0.00     0.179 C 
ATOM     21  C   UNL     1      10.184   8.538  15.571  1.00  0.00     0.198 C 
BRANCH  17  22
ATOM     22  O   UNL     1       7.861  10.904  16.909  1.00  0.00    -0.366 OA
ATOM     23  H   UNL     1       8.384  11.676  16.576  1.00  0.00     0.213 HD
ENDBRANCH  17  22
BRANCH  18  24
ATOM     24  O   UNL     1       6.178   9.514  14.862  1.00  0.00    -0.385 OA
ATOM     25  H   UNL     1       5.818   9.695  13.957  1.00  0.00     0.211 HD
ENDBRANCH  18  24
BRANCH  20  26
ATOM     26  O   UNL     1       7.719   8.525  12.693  1.00  0.00    -0.387 OA
ATOM     27  H   UNL     1       8.208   7.832  12.183  1.00  0.00     0.211 HD
ENDBRANCH  20  26
ENDBRANCH  15  16
ENDBRANCH  10  15
BRANCH  11  28
ATOM     28  O   UNL     1      12.002   5.231  13.111  1.00  0.00    -0.385 OA
ATOM     29  H   UNL     1      12.553   4.545  12.657  1.00  0.00     0.211 HD
ENDBRANCH  11  28
BRANCH  13  30
ATOM     30  O   UNL     1      11.933   4.319  10.336  1.00  0.00    -0.387 OA
ATOM     31  H   UNL     1      12.260   3.817  11.124  1.00  0.00     0.211 HD
ENDBRANCH  13  30
ENDBRANCH   8   9
ENDBRANCH   3   8
BRANCH   4  32
ATOM     32  O   UNL     1      11.630   7.260   5.762  1.00  0.00    -0.385 OA
ATOM     33  H   UNL     1      11.721   7.302   4.777  1.00  0.00     0.211 HD
ENDBRANCH   4  32
BRANCH   6  34
ATOM     34  O   UNL     1      12.000   5.029   4.019  1.00  0.00    -0.387 OA
ATOM     35  H   UNL     1      12.896   5.330   4.314  1.00  0.00     0.211 HD
ENDBRANCH   6  34
ENDBRANCH   1   2
BRANCH   1  36
ATOM     36  C   UNL     1       8.489   2.957   4.687  1.00  0.00     0.282 C 
ATOM     37  C   UNL     1       7.935   1.989   5.693  1.00  0.00     0.202 C 
ATOM     38  O   UNL     1       8.236   4.283   5.151  1.00  0.00    -0.347 OA
ATOM     39  C   UNL     1       6.476   2.293   6.124  1.00  0.00     0.179 C 
ATOM     40  C   UNL     1       6.902   4.547   5.091  1.00  0.00     0.198 C 
ATOM     41  C   UNL     1       6.106   3.733   6.091  1.00  0.00     0.179 C 
BRANCH  37  42
ATOM     42  O   UNL     1       8.023   0.622   5.218  1.00  0.00    -0.385 OA
ATOM     43  H   UNL     1       7.378   0.058   5.715  1.00  0.00     0.211 HD
ENDBRANCH  37  42
BRANCH  39  44
ATOM     44  O   UNL     1       6.352   1.697   7.398  1.00  0.00    -0.387 OA
ATOM     45  H   UNL     1       5.406   1.733   7.688  1.00  0.00     0.211 HD
ENDBRANCH  39  44
BRANCH  41  46
ATOM     46  O   UNL     1       4.740   3.833   5.704  1.00  0.00    -0.341 OA
BRANCH  46  47
ATOM     47  C   UNL     1       3.876   4.598   6.503  1.00  0.00     0.282 C 
ATOM     48  C   UNL     1       4.184   4.378   7.964  1.00  0.00     0.202 C 
ATOM     49  O   UNL     1       4.168   5.964   6.139  1.00  0.00    -0.347 OA
ATOM     50  C   UNL     1       3.446   5.343   8.831  1.00  0.00     0.179 C 
ATOM     51  C   UNL     1       3.314   6.854   6.860  1.00  0.00     0.198 C 
ATOM     52  C   UNL     1       3.602   6.738   8.369  1.00  0.00     0.179 C 
BRANCH  48  53
ATOM     53  O   UNL     1       3.783   3.046   8.337  1.00  0.00    -0.385 OA
ATOM     54  H   UNL     1       4.133   2.398   7.676  1.00  0.00     0.211 HD
ENDBRANCH  48  53
BRANCH  50  55
ATOM     55  O   UNL     1       3.888   5.208  10.176  1.00  0.00    -0.387 OA
ATOM     56  H   UNL     1       3.198   5.567  10.788  1.00  0.00     0.211 HD
ENDBRANCH  50  55
BRANCH  52  57
ATOM     57  O   UNL     1       2.710   7.555   9.078  1.00  0.00    -0.341 OA
BRANCH  57  58
ATOM     58  C   UNL     1       3.182   8.502   9.972  1.00  0.00     0.282 C 
ATOM     59  C   UNL     1       3.718   7.803  11.228  1.00  0.00     0.202 C 
ATOM     60  O   UNL     1       4.289   9.152   9.346  1.00  0.00    -0.347 OA
ATOM     61  C   UNL     1       4.441   8.788  12.139  1.00  0.00     0.179 C 
ATOM     62  C   UNL     1       4.827  10.173  10.233  1.00  0.00     0.198 C 
ATOM     63  C   UNL     1       5.420   9.594  11.441  1.00  0.00     0.171 C 
BRANCH  59  64
ATOM     64  O   UNL     1       2.678   7.229  11.956  1.00  0.00    -0.385 OA
ATOM     65  H   UNL     1       1.835   7.302  11.442  1.00  0.00     0.211 HD
ENDBRANCH  59  64
BRANCH  61  66
ATOM     66  O   UNL     1       5.007   8.027  13.225  1.00  0.00    -0.387 OA
ATOM     67  H   UNL     1       5.994   8.088  13.192  1.00  0.00     0.211 HD
ENDBRANCH  61  66
BRANCH  63  68
ATOM     68  O   UNL     1       5.907  10.679  12.249  1.00  0.00    -0.388 OA
ATOM     69  H   UNL     1       6.553  10.332  12.913  1.00  0.00     0.211 HD
ENDBRANCH  63  68
ENDBRANCH  57  58
ENDBRANCH  52  57
ENDBRANCH  46  47
ENDBRANCH  41  46
ENDBRANCH   1  36
TORSDOF 24
ENDMDL
MODEL 9
REMARK VINA RESULT:    -7.720      4.750     12.254
REMARK INTER + INTRA:         -27.517
REMARK INTER:                 -14.879
REMARK INTRA:                 -12.638
REMARK CONF_INDEPENDENT:        7.159
REMARK UNBOUND:               -12.638
REMARK SMILES O[C@@H]1[C@@H](O)[C@H](O[C@@H]2CO[C@@H](O[C@@H]3CO[C@@H](O[C@@H]4CO[C@@H](O[C@@H]5CO[C@@H](O[C@@H]6CO[C@@H](O)[C@H](O)[C@H]6O)[C@H](O)[C@H]5O)[C@H](O)[C@H]4O)[C@H](O)[C@H]3O)[C@H](O)[C@H]2O)OC[C@H]1O
REMARK SMILES IDX 16 1 17 2 20 3 40 4 19 5 42 6 18 7 21 8 22 9 25 10 36 11
REMARK SMILES IDX 24 12 38 13 23 14 26 15 27 16 30 17 32 18 29 19 34 20 28 21
REMARK SMILES IDX 31 22 33 24 35 26 37 28 39 30 41 32 43 34 15 36 44 37 14 38
REMARK SMILES IDX 46 39 13 40 12 41 45 42 47 44 11 46 10 47 48 48 9 49 50 50
REMARK SMILES IDX 8 51 7 52 49 53 51 55 6 57 5 58 3 59 52 60 2 61 53 62 54 63
REMARK SMILES IDX 4 64 1 66 55 68
REMARK H PARENT 31 23 33 25 35 27 37 29 39 31 41 33 43 35 45 43 47 45 49 54
REMARK H PARENT 51 56 4 65 1 67 55 69
ROOT
ATOM      1  O   UNL     1       9.236   9.798  12.413  1.00  0.00    -0.341 OA
ENDROOT
BRANCH   1   2
ATOM      2  C   UNL     1       7.926  10.366  12.366  1.00  0.00     0.179 C 
ATOM      3  C   UNL     1       5.343  10.012  11.286  1.00  0.00     0.282 C 
ATOM      4  C   UNL     1       6.208  11.173  10.812  1.00  0.00     0.202 C 
ATOM      5  O   UNL     1       5.631   9.704  12.617  1.00  0.00    -0.347 OA
ATOM      6  C   UNL     1       7.630  10.901  11.025  1.00  0.00     0.179 C 
ATOM      7  C   UNL     1       6.972   9.255  12.754  1.00  0.00     0.198 C 
BRANCH   3   8
ATOM      8  O   UNL     1       4.013  10.387  11.229  1.00  0.00    -0.341 OA
BRANCH   8   9
ATOM      9  C   UNL     1       3.262   9.567  10.346  1.00  0.00     0.179 C 
ATOM     10  C   UNL     1       3.089   8.438   7.697  1.00  0.00     0.282 C 
ATOM     11  C   UNL     1       2.183   9.541   8.065  1.00  0.00     0.202 C 
ATOM     12  O   UNL     1       3.476   7.675   8.799  1.00  0.00    -0.347 OA
ATOM     13  C   UNL     1       2.789  10.439   9.222  1.00  0.00     0.179 C 
ATOM     14  C   UNL     1       4.132   8.548   9.752  1.00  0.00     0.198 C 
BRANCH  10  15
ATOM     15  O   UNL     1       2.344   7.608   6.855  1.00  0.00    -0.341 OA
BRANCH  15  16
ATOM     16  C   UNL     1       3.010   6.743   6.187  1.00  0.00     0.179 C 
ATOM     17  C   UNL     1       2.843   4.564   4.225  1.00  0.00     0.278 C 
ATOM     18  C   UNL     1       3.196   4.282   5.650  1.00  0.00     0.201 C 
ATOM     19  O   UNL     1       3.246   5.872   3.863  1.00  0.00    -0.347 OA
ATOM     20  C   UNL     1       2.694   5.240   6.679  1.00  0.00     0.179 C 
ATOM     21  C   UNL     1       2.640   6.898   4.694  1.00  0.00     0.198 C 
BRANCH  17  22
ATOM     22  O   UNL     1       3.415   3.694   3.308  1.00  0.00    -0.366 OA
ATOM     23  H   UNL     1       4.328   3.454   3.606  1.00  0.00     0.213 HD
ENDBRANCH  17  22
BRANCH  18  24
ATOM     24  O   UNL     1       2.643   2.959   6.105  1.00  0.00    -0.385 OA
ATOM     25  H   UNL     1       3.379   2.396   6.453  1.00  0.00     0.211 HD
ENDBRANCH  18  24
BRANCH  20  26
ATOM     26  O   UNL     1       3.182   5.043   7.954  1.00  0.00    -0.387 OA
ATOM     27  H   UNL     1       2.776   5.704   8.569  1.00  0.00     0.211 HD
ENDBRANCH  20  26
ENDBRANCH  15  16
ENDBRANCH  10  15
BRANCH  11  28
ATOM     28  O   UNL     1       1.848  10.360   6.938  1.00  0.00    -0.385 OA
ATOM     29  H   UNL     1       1.339   9.824   6.280  1.00  0.00     0.211 HD
ENDBRANCH  11  28
BRANCH  13  30
ATOM     30  O   UNL     1       1.921  11.485   9.633  1.00  0.00    -0.387 OA
ATOM     31  H   UNL     1       1.263  11.670   8.917  1.00  0.00     0.211 HD
ENDBRANCH  13  30
ENDBRANCH   8   9
ENDBRANCH   3   8
BRANCH   4  32
ATOM     32  O   UNL     1       5.970  11.386   9.430  1.00  0.00    -0.385 OA
ATOM     33  H   UNL     1       6.339  12.265   9.163  1.00  0.00     0.211 HD
ENDBRANCH   4  32
BRANCH   6  34
ATOM     34  O   UNL     1       8.371  12.114  10.794  1.00  0.00    -0.387 OA
ATOM     35  H   UNL     1       9.336  11.903  10.726  1.00  0.00     0.211 HD
ENDBRANCH   6  34
ENDBRANCH   1   2
BRANCH   1  36
ATOM     36  C   UNL     1       9.872   8.958  11.416  1.00  0.00     0.282 C 
ATOM     37  C   UNL     1      10.597   9.728  10.350  1.00  0.00     0.202 C 
ATOM     38  O   UNL     1      10.840   8.334  12.259  1.00  0.00    -0.347 OA
ATOM     39  C   UNL     1      11.706   8.916   9.629  1.00  0.00     0.179 C 
ATOM     40  C   UNL     1      11.475   7.341  11.578  1.00  0.00     0.198 C 
ATOM     41  C   UNL     1      12.358   7.875  10.468  1.00  0.00     0.179 C 
BRANCH  37  42
ATOM     42  O   UNL     1       9.678  10.267   9.367  1.00  0.00    -0.385 OA
ATOM     43  H   UNL     1       9.592  11.245   9.497  1.00  0.00     0.211 HD
ENDBRANCH  37  42
BRANCH  39  44
ATOM     44  O   UNL     1      12.594   9.894   9.133  1.00  0.00    -0.387 OA
ATOM     45  H   UNL     1      12.109  10.496   8.514  1.00  0.00     0.211 HD
ENDBRANCH  39  44
BRANCH  41  46
ATOM     46  O   UNL     1      12.680   6.768   9.634  1.00  0.00    -0.341 OA
BRANCH  46  47
ATOM     47  C   UNL     1      11.643   6.145   8.924  1.00  0.00     0.282 C 
ATOM     48  C   UNL     1      11.877   6.273   7.438  1.00  0.00     0.202 C 
ATOM     49  O   UNL     1      11.723   4.759   9.316  1.00  0.00    -0.347 OA
ATOM     50  C   UNL     1      10.923   5.430   6.659  1.00  0.00     0.179 C 
ATOM     51  C   UNL     1      10.678   4.013   8.687  1.00  0.00     0.198 C 
ATOM     52  C   UNL     1      10.872   4.040   7.160  1.00  0.00     0.179 C 
BRANCH  48  53
ATOM     53  O   UNL     1      11.683   7.645   7.045  1.00  0.00    -0.385 OA
ATOM     54  H   UNL     1      12.199   8.237   7.647  1.00  0.00     0.211 HD
ENDBRANCH  48  53
BRANCH  50  55
ATOM     55  O   UNL     1      11.283   5.454   5.283  1.00  0.00    -0.387 OA
ATOM     56  H   UNL     1      10.464   5.450   4.728  1.00  0.00     0.211 HD
ENDBRANCH  50  55
BRANCH  52  57
ATOM     57  O   UNL     1       9.804   3.374   6.543  1.00  0.00    -0.341 OA
BRANCH  57  58
ATOM     58  C   UNL     1       8.499   3.613   6.943  1.00  0.00     0.282 C 
ATOM     59  C   UNL     1       7.530   3.108   5.867  1.00  0.00     0.202 C 
ATOM     60  O   UNL     1       8.272   2.828   8.115  1.00  0.00    -0.347 OA
ATOM     61  C   UNL     1       6.088   3.153   6.359  1.00  0.00     0.179 C 
ATOM     62  C   UNL     1       6.915   3.042   8.597  1.00  0.00     0.198 C 
ATOM     63  C   UNL     1       5.913   2.535   7.657  1.00  0.00     0.171 C 
BRANCH  59  64
ATOM     64  O   UNL     1       7.615   3.894   4.719  1.00  0.00    -0.385 OA
ATOM     65  H   UNL     1       7.016   3.526   4.021  1.00  0.00     0.211 HD
ENDBRANCH  59  64
BRANCH  61  66
ATOM     66  O   UNL     1       5.268   2.558   5.334  1.00  0.00    -0.387 OA
ATOM     67  H   UNL     1       4.547   2.027   5.755  1.00  0.00     0.211 HD
ENDBRANCH  61  66
BRANCH  63  68
ATOM     68  O   UNL     1       4.616   2.806   8.217  1.00  0.00    -0.388 OA
ATOM     69  H   UNL     1       3.988   3.049   7.493  1.00  0.00     0.211 HD
ENDBRANCH  63  68
ENDBRANCH  57  58
ENDBRANCH  52  57
ENDBRANCH  46  47
ENDBRANCH  41  46
ENDBRANCH   1  36
TORSDOF 24
ENDMDL
